 Gaussian 16, Revision C.01,
 Gaussian 16:  ES64L-G16RevC.01  3-Jul-2019

 ---------------------------------------------
 #p wB97XD/6-311++G(d,p) SCF=QC opt=tight freq
 ---------------------------------------------

 ------
 ligand
 ------
 Symbolic Z-matrix:
 Charge =  0 Multiplicity = 1

 SCF Done:  E(RwB97XD) =  -232.220627038     a.u. after    6 cycles
 SCF Done:  E(RwB97XD) =  -232.221017878     a.u. after    4 cycles
 SCF Done:  E(RwB97XD) =  -232.221022720     a.u. after    2 cycles
 SCF Done:  E(RwB97XD) =  -232.221022733     a.u. after    2 cycles
 SCF Done:  E(RwB97XD) =  -232.221022736     a.u. after    2 cycles
 Optimization completed.
    -- Stationary point found.
 Normal termination of Gaussian 16 at Tue Sep  5 13:25:15 2023.

 ----------------------------------------------------------------------
 #P Geom=AllCheck Guess=TCheck SCRF=Check GenChk RwB97XD/6-311++G(d,p)
 Freq
 ----------------------------------------------------------------------

 Structure from the checkpoint file:  "lig.chk"
 ------
 ligand
 ------
 Charge =  0 Multiplicity = 1

                         Standard orientation:
 ---------------------------------------------------------------------
 Center     Atomic      Atomic             Coordinates (Angstroms)
 Number     Number       Type             X           Y           Z
 ---------------------------------------------------------------------
      1          6           0        0.000000    0.695406    1.204533
      2          6           0        0.000000   -0.695406    1.204533
      3          6           0        0.000000    1.390768   -0.000000
      4          1           0        0.000000    1.237688    2.143613
      5          6           0        0.000000   -1.390768   -0.000000
      6          1           0        0.000000   -1.237688    2.143613
      7          6           0        0.000000   -0.695408   -1.204532
      8          1           0        0.000000   -2.475175    0.000001
      9          6           0       -0.000000    0.695408   -1.204532
     10          1           0        0.000000   -1.237682   -2.143617
     11          1           0       -0.000000    1.237682   -2.143617
     12          1           0       -0.000000    2.475175    0.000001
 ---------------------------------------------------------------------

 SCF Done:  E(RwB97XD) =  -232.221022736     a.u. after    1 cycles

 The electronic state is 1-A1.
 Alpha  occ. eigenvalues --  -10.29068 -10.29042 -10.29042 -10.28982 -10.28982
 Alpha  occ. eigenvalues --  -10.28954  -0.96174  -0.84983  -0.84982  -0.70039
 Alpha  occ. eigenvalues --   -0.70038  -0.61955  -0.55176  -0.53815  -0.51064
 Alpha  occ. eigenvalues --   -0.51061  -0.46172  -0.42857  -0.42856  -0.33378
 Alpha  occ. eigenvalues --   -0.33377
 Alpha virt. eigenvalues --    0.04259   0.05172   0.05172   0.05357   0.05357
 Alpha virt. eigenvalues --    0.06951   0.06952   0.09146   0.12213   0.13693
 Alpha virt. eigenvalues --    0.14776   0.14776   0.15966   0.16743   0.17210

 Mulliken charges:
               1
     1  C   -0.198007
     2  C   -0.198007
     3  C   -0.197873
     4  H    0.197967
     5  C   -0.197873
     6  H    0.197967
     7  C   -0.198005
     8  H    0.197953
     9  C   -0.198005
    10  H    0.197966
    11  H    0.197966
    12  H    0.197953
 Sum of Mulliken charges =  -0.00000

 Dipole moment (field-independent basis, Debye):
    X=             -0.0000    Y=              0.0000    Z=             -0.0000  Tot=              0.0000
 Quadrupole moment (field-independent basis, Debye-Ang):
   XX=            -40.1511   YY=            -31.5636   ZZ=            -31.5630
   XY=             -0.0000   XZ=              0.0000   YZ=              0.0000

  Exact polarizability:      40.958      -0.000      77.148       0.000      -0.000      77.178
 Approx polarizability:      45.892      -0.000      87.833       0.000       0.000      87.838

                      1                      2                      3
                     A2                     B1                     A1
 Frequencies --    413.5012               413.6282               625.9673
 Red. masses --      2.8581                 2.8590                 6.0888
 Frc consts  --      0.2879                 0.2882                 1.4057
 IR Inten    --      0.0000                 0.0000                 0.0000

                      4                      5                      6
                     B2                     B1                     A2
 Frequencies --    626.7145               695.1483               728.0569
 Red. masses --      6.0852                 1.0848                 3.4452
 Frc consts  --      1.4082                 0.3089                 1.0760
 IR Inten    --      0.0000               129.7758                 0.0000

                      7                      8                      9
                     B1                     A2                     A2
 Frequencies --    877.9822               878.0709              1003.6137
 Red. masses --      1.2480                 1.2480                 1.3780
 Frc consts  --      0.5668                 0.5669                 0.8178
 IR Inten    --      0.0000                 0.0000                 0.0000

                     10                     11                     12
                     B1                     B2                     A1
 Frequencies --   1003.6881              1026.1287              1026.6553
 Red. masses --      1.3778                 6.5380                 5.9871
 Frc consts  --      0.8178                 4.0560                 3.7181
 IR Inten    --      0.0001                 0.0001                 0.0000

                     13                     14                     15
                     A2                     A1                     B2
 Frequencies --   1030.4674              1071.0827              1071.3679
 Red. masses --      1.2734                 1.6589                 1.6585
 Frc consts  --      0.7967                 1.1213                 1.1216
 IR Inten    --      0.0000                 7.2121                 7.2748

                     16                     17                     18
                     A1                     B2                     A1
 Frequencies --   1178.7995              1206.8849              1207.1472
 Red. masses --      1.1304                 1.1249                 1.1249
 Frc consts  --      0.9255                 0.9654                 0.9658
 IR Inten    --      0.0002                 0.0000                 0.0000

                     19                     20                     21
                     A1                     B2                     A1
 Frequencies --   1341.8348              1382.8730              1522.8786
 Red. masses --      5.2372                 1.2480                 2.0732
 Frc consts  --      5.5558                 1.4062                 2.8328
 IR Inten    --      0.0000                 0.0000                 7.8377

                     22                     23                     24
                     B2                     A1                     B2
 Frequencies --   1523.2271              1668.5121              1668.6717
 Red. masses --      2.0737                 5.5788                 5.5804
 Frc consts  --      2.8348                 9.1506                 9.1549
 IR Inten    --      7.8004                 0.0000                 0.0000

                     25                     26                     27
                     B2                     A1                     B2
 Frequencies --   3178.7406              3188.9982              3189.4508
 Red. masses --      1.0839                 1.0885                 1.0885
 Frc consts  --      6.4526                 6.5220                 6.5242
 IR Inten    --      0.0063                 0.0000                 0.0000

                     28                     29                     30
                     B2                     A1                     A1
 Frequencies --   3205.4648              3205.8681              3216.3970
 Red. masses --      1.0962                 1.0962                 1.1007
 Frc consts  --      6.6365                 6.6380                 6.7088
 IR Inten    --     34.3938                34.3900                 0.0000

 - Thermochemistry -
 -------------------
 Temperature   298.150 Kelvin.  Pressure   1.00000 Atm.
 Atom     1 has atomic number  6 and mass  12.00000

 Molecular mass:    78.04695 amu.
 Principal axes and moments of inertia in atomic units:
                           1         2         3
     Eigenvalues --   314.81893 314.85113 629.67006
           X            0.00000  -0.00000   1.00000
           Y            0.00000   1.00000   0.00000
           Z            1.00000  -0.00000  -0.00000
 This molecule is an asymmetric top.
 Rotational symmetry number  2.
 Rotational temperatures (Kelvin)      0.27512     0.27509     0.13755
 Rotational constants (GHZ):           5.73263     5.73205     2.86617
 Zero-point vibrational energy     265438.3 (Joules/Mol)
                                   63.44128 (Kcal/Mol)
 Warning -- explicit consideration of   2 degrees of freedom as
           vibrations may cause significant error
 Vibrational temperatures:    594.94   595.12   900.63   901.70  1000.16
          (Kelvin)           1047.51  1263.22  1263.35  1443.98  1444.08
                             1476.37  1477.13  1482.61  1541.05  1541.46
                             1696.03  1736.44  1736.82  1930.60  1989.65
                             2191.08  2191.58  2400.62  2400.85  4573.50
                             4588.26  4588.91  4611.95  4612.53  4627.68

 Zero-point correction=                           0.101100 (Hartree/Particle)
 Thermal correction to Energy=                    0.105461
 Thermal correction to Enthalpy=                  0.106405
 Thermal correction to Gibbs Free Energy=         0.074311
 Sum of electronic and zero-point Energies=           -232.119923
 Sum of electronic and thermal Energies=              -232.115562
 Sum of electronic and thermal Enthalpies=            -232.114617
 Sum of electronic and thermal Free Energies=         -232.146711

                     E (Thermal)             CV                S
                      KCal/Mol        Cal/Mol-Kelvin    Cal/Mol-Kelvin
 Total                   66.178             16.955             67.547
 Electronic               0.000              0.000              0.000
 Translational            0.889              2.981             38.979
 Rotational               0.889              2.981             24.260
 Vibrational             64.400             10.993              4.308
 Vibration     1          0.777              1.441              0.914
 Vibration     2          0.777              1.441              0.914

 Optimization completed.
    -- Stationary point found.
 Normal termination of Gaussian 16 at Tue Sep  5 13:25:31 2023.
