 Gaussian 16, Revision B.01,
 Gaussian 16:  AM64L-G16RevB.01 20-Dec-2017

 -------------------------------------------------------
 #Opt Freq wb97xD 6-311++G(d, p) pop=(CM5, ESP, NBOREAD)
 -------------------------------------------------------

 ---
 BEN
 ---
 Symbolic Z-matrix:
 Charge =  0 Multiplicity = 1

 SCF Done:  E(RwB97XD) =  -232.221019473     A.U. after   10 cycles
 SCF Done:  E(RwB97XD) =  -232.221022590     A.U. after    8 cycles
 Optimization completed.
    -- Stationary point found.

 ESP charges:
               1
     1  C   -0.131061
     2  C   -0.131061
     3  C   -0.106163
     4  H    0.124879
     5  C   -0.106163
     6  H    0.124879
     7  C   -0.131061
     8  H    0.118527
     9  C   -0.131061
    10  H    0.124879
    11  H    0.124879
    12  H    0.118527
 Sum of ESP charges =   0.00000

 Normal termination of Gaussian 16 at Wed Dec 27 12:44:32 2023.

 ----------------------------------------------------------------------
 #N Geom=AllCheck Guess=TCheck SCRF=Check GenChk RwB97XD/6-311++G(d,p)
 Freq
 ----------------------------------------------------------------------

 Structure from the checkpoint file:  "BEN_hessian.chk"
 ---
 BEN
 ---
 Charge =  0 Multiplicity = 1

                         Standard orientation:
 ---------------------------------------------------------------------
 Center     Atomic      Atomic             Coordinates (Angstroms)
 Number     Number       Type             X           Y           Z
 ---------------------------------------------------------------------
      1          6           0        0.000000    1.204444    0.695351
      2          6           0        0.000000    1.204444   -0.695351
      3          6           0        0.000000    0.000000    1.390904
      4          1           0        0.000000    2.143353    1.237948
      5          6           0        0.000000    0.000000   -1.390904
      6          1           0        0.000000    2.143353   -1.237948
      7          6           0       -0.000000   -1.204444   -0.695351
      8          1           0       -0.000000   -0.000000   -2.475278
      9          6           0       -0.000000   -1.204444    0.695351
     10          1           0       -0.000000   -2.143353   -1.237948
     11          1           0       -0.000000   -2.143353    1.237948
     12          1           0       -0.000000    0.000000    2.475278
 ---------------------------------------------------------------------

 SCF Done:  E(RwB97XD) =  -232.221022590     A.U. after    1 cycles

 The electronic state is 1-AG.
 Alpha  occ. eigenvalues --  -10.29067 -10.29041 -10.29041 -10.28981 -10.28981
 Alpha  occ. eigenvalues --  -10.28953  -0.96175  -0.84983  -0.84983  -0.70040
 Alpha  occ. eigenvalues --   -0.70038  -0.61956  -0.55175  -0.53815  -0.51063
 Alpha  occ. eigenvalues --   -0.51062  -0.46173  -0.42864  -0.42849  -0.33379
 Alpha  occ. eigenvalues --   -0.33376
 Alpha virt. eigenvalues --    0.04259   0.05172   0.05173   0.05355   0.05359
 Alpha virt. eigenvalues --    0.06951   0.06952   0.09146   0.12213   0.13693
 Alpha virt. eigenvalues --    0.14776   0.14777   0.15966   0.16743   0.17210

 Mulliken charges:
               1
     1  C   -0.198059
     2  C   -0.198059
     3  C   -0.197754
     4  H    0.197952
     5  C   -0.197754
     6  H    0.197952
     7  C   -0.198059
     8  H    0.197968
     9  C   -0.198059
    10  H    0.197952
    11  H    0.197952
    12  H    0.197968
 Sum of Mulliken charges =  -0.00000

 Dipole moment (field-independent basis, Debye):
    X=             -0.0000    Y=              0.0000    Z=              0.0000  Tot=              0.0000
 Quadrupole moment (field-independent basis, Debye-Ang):
   XX=            -40.1507   YY=            -31.5682   ZZ=            -31.5586
   XY=              0.0000   XZ=             -0.0000   YZ=              0.0000

  Exact polarizability:  40.957   0.000  77.169  -0.000   0.000  77.153
 Approx polarizability:  45.891   0.000  87.823  -0.000  -0.000  87.841

 Summary of Natural Population Analysis:

                                       Natural Population
                Natural  -----------------------------------------------
    Atom  No    Charge         Core      Valence    Rydberg      Total
 -----------------------------------------------------------------------
      C    1   -0.20720      1.99917     4.19054    0.01749     6.20720
      C    2   -0.20720      1.99917     4.19054    0.01749     6.20720
      C    3   -0.20711      1.99917     4.19045    0.01749     6.20711
      H    4    0.20717      0.00000     0.79130    0.00153     0.79283
      C    5   -0.20711      1.99917     4.19045    0.01749     6.20711
      H    6    0.20717      0.00000     0.79130    0.00153     0.79283
      C    7   -0.20720      1.99917     4.19054    0.01749     6.20720
      H    8    0.20717      0.00000     0.79130    0.00153     0.79283
      C    9   -0.20720      1.99917     4.19054    0.01749     6.20720
      H   10    0.20717      0.00000     0.79130    0.00153     0.79283
      H   11    0.20717      0.00000     0.79130    0.00153     0.79283
      H   12    0.20717      0.00000     0.79130    0.00153     0.79283
 =======================================================================
   * Total *    0.00000     11.99502    29.89088    0.11410    42.00000

                      1                      2                      3
                     AU                     B3U                    AG
 Frequencies --    413.4174               413.6295               625.9868
 Red. masses --      2.8592                 2.8580                 6.0887
 Frc consts  --      0.2879                 0.2881                 1.4057
 IR Inten    --      0.0000                 0.0001                 0.0000

                      4                      5                      6
                     B3G                    B3U                    B2G
 Frequencies --    626.6997               695.1235               728.0433
 Red. masses --      6.0850                 1.0848                 3.4453
 Frc consts  --      1.4081                 0.3088                 1.0759
 IR Inten    --      0.0000               129.7703                 0.0000

                      7                      8                      9
                     B2G                    B1G                    B3U
 Frequencies --    877.9579               878.0736              1003.6085
 Red. masses --      1.2481                 1.2480                 1.3780
 Frc consts  --      0.5668                 0.5669                 0.8178
 IR Inten    --      0.0000                 0.0000                 0.0000

                     10                     11                     12
                     AU                     B1U                    AG
 Frequencies --   1003.6879              1026.1350              1026.7187
 Red. masses --      1.3778                 6.5379                 5.9871
 Frc consts  --      0.8177                 4.0560                 3.7185
 IR Inten    --      0.0000                 0.0002                 0.0000

                     13                     14                     15
                     B2G                    B2U                    B1U
 Frequencies --   1030.4676              1071.0714              1071.4482
 Red. masses --      1.2734                 1.6583                 1.6588
 Frc consts  --      0.7967                 1.1209                 1.1220
 IR Inten    --      0.0000                 7.2285                 7.2605

                     16                     17                     18
                     B2U                    B3G                    AG
 Frequencies --   1178.8289              1206.8451              1207.2303
 Red. masses --      1.1302                 1.1249                 1.1249
 Frc consts  --      0.9253                 0.9653                 0.9659
 IR Inten    --      0.0001                 0.0000                 0.0000

                     19                     20                     21
                     B2U                    B3G                    B2U
 Frequencies --   1341.9535              1382.8840              1522.9393
 Red. masses --      5.2420                 1.2480                 2.0741
 Frc consts  --      5.5619                 1.4062                 2.8343
 IR Inten    --      0.0001                 0.0000                 7.8449

                     22                     23                     24
                     B1U                    B3G                    AG
 Frequencies --   1523.2473              1668.5486              1668.8103
 Red. masses --      2.0733                 5.5814                 5.5800
 Frc consts  --      2.8343                 9.1552                 9.1558
 IR Inten    --      7.7914                 0.0000                 0.0000

                     25                     26                     27
                     B1U                    AG                     B3G
 Frequencies --   3178.7900              3189.1973              3189.3489
 Red. masses --      1.0839                 1.0885                 1.0885
 Frc consts  --      6.4528                 6.5229                 6.5237
 IR Inten    --      0.0008                 0.0000                 0.0000

                     28                     29                     30
                     B1U                    B2U                    AG
 Frequencies --   3205.6543              3205.7720              3216.4430
 Red. masses --      1.0962                 1.0962                 1.1007
 Frc consts  --      6.6373                 6.6377                 6.7090
 IR Inten    --     34.3496                34.4502                 0.0000

 - Thermochemistry -
 -------------------
 Temperature   298.150 Kelvin.  Pressure   1.00000 Atm.
 Atom     1 has atomic number  6 and mass  12.00000

 Molecular mass:    78.04695 amu.
 Principal axes and moments of inertia in atomic units:
                           1         2         3
     Eigenvalues --   314.79830 314.85119 629.64949
           X            0.00000   0.00000   1.00000
           Y            0.00000   1.00000  -0.00000
           Z            1.00000  -0.00000   0.00000
 This molecule is an asymmetric top.
 Rotational symmetry number  4.
 Rotational temperatures (Kelvin)      0.27514     0.27509     0.13756
 Rotational constants (GHZ):           5.73301     5.73205     2.86626
 Zero-point vibrational energy     265442.7 (Joules/Mol)
                                   63.44234 (Kcal/Mol)
 Warning -- explicit consideration of   2 degrees of freedom as
           vibrations may cause significant error
 Vibrational temperatures:    594.82   595.12   900.66   901.68  1000.13
          (Kelvin)           1047.49  1263.19  1263.35  1443.97  1444.08
                             1476.38  1477.22  1482.61  1541.03  1541.58
                             1696.07  1736.38  1736.94  1930.77  1989.66
                             2191.17  2191.61  2400.67  2401.05  4573.57
                             4588.54  4588.76  4612.22  4612.39  4627.74

 Zero-point correction=                           0.101102 (Hartree/Particle)
 Thermal correction to Energy=                    0.105463
 Thermal correction to Enthalpy=                  0.106407
 Thermal correction to Gibbs Free Energy=         0.074967
 Sum of electronic and zero-point Energies=           -232.119921
 Sum of electronic and thermal Energies=              -232.115560
 Sum of electronic and thermal Enthalpies=            -232.114616
 Sum of electronic and thermal Free Energies=         -232.146055

                     E (Thermal)             CV                S
                      KCal/Mol        Cal/Mol-Kelvin    Cal/Mol-Kelvin
 Total                   66.179             16.955             66.170
 Electronic               0.000              0.000              0.000
 Translational            0.889              2.981             38.979
 Rotational               0.889              2.981             22.882
 Vibrational             64.401             10.993              4.309
 Vibration     1          0.777              1.441              0.915
 Vibration     2          0.777              1.441              0.914

 Optimization completed.
    -- Stationary point found.
 Normal termination of Gaussian 16 at Wed Dec 27 12:45:03 2023.
